+ 0.1 0 2 ping 50000 ------- 1 0.0 4.0 -1 0
- 0.1 0 2 ping 50000 ------- 1 0.0 4.0 -1 0
+ 0.1 5 2 ping 60000 ------- 2 5.0 6.0 -1 1
- 0.1 5 2 ping 60000 ------- 2 5.0 6.0 -1 1
+ 0.2 0 2 ping 50000 ------- 1 0.0 4.0 -1 2
- 0.2 0 2 ping 50000 ------- 1 0.0 4.0 -1 2
+ 0.2 5 2 ping 60000 ------- 2 5.0 6.0 -1 3
+ 0.3 0 2 ping 50000 ------- 1 0.0 4.0 -1 4
- 0.3 0 2 ping 50000 ------- 1 0.0 4.0 -1 4
+ 0.3 5 2 ping 60000 ------- 2 5.0 6.0 -1 5
+ 0.4 0 2 ping 50000 ------- 1 0.0 4.0 -1 6
- 0.4 0 2 ping 50000 ------- 1 0.0 4.0 -1 6
+ 0.4 5 2 ping 60000 ------- 2 5.0 6.0 -1 7
r 0.404 0 2 ping 50000 ------- 1 0.0 4.0 -1 0
+ 0.404 2 4 ping 50000 ------- 1 0.0 4.0 -1 0
- 0.404 2 4 ping 50000 ------- 1 0.0 4.0 -1 0
+ 0.5 0 2 ping 50000 ------- 1 0.0 4.0 -1 8
- 0.5 0 2 ping 50000 ------- 1 0.0 4.0 -1 8
+ 0.5 5 2 ping 60000 ------- 2 5.0 6.0 -1 9
r 0.504 0 2 ping 50000 ------- 1 0.0 4.0 -1 2
+ 0.504 2 4 ping 50000 ------- 1 0.0 4.0 -1 2
- 0.58 5 2 ping 60000 ------- 2 5.0 6.0 -1 3
+ 0.6 0 2 ping 50000 ------- 1 0.0 4.0 -1 10
- 0.6 0 2 ping 50000 ------- 1 0.0 4.0 -1 10
+ 0.6 5 2 ping 60000 ------- 2 5.0 6.0 -1 11
r 0.604 0 2 ping 50000 ------- 1 0.0 4.0 -1 4
+ 0.604 2 4 ping 50000 ------- 1 0.0 4.0 -1 4
+ 0.7 0 2 ping 50000 ------- 1 0.0 4.0 -1 12
- 0.7 0 2 ping 50000 ------- 1 0.0 4.0 -1 12
+ 0.7 5 2 ping 60000 ------- 2 5.0 6.0 -1 13
r 0.704 0 2 ping 50000 ------- 1 0.0 4.0 -1 6
+ 0.704 2 4 ping 50000 ------- 1 0.0 4.0 -1 6
d 0.704 2 4 ping 50000 ------- 1 0.0 4.0 -1 6
+ 0.8 0 2 ping 50000 ------- 1 0.0 4.0 -1 14
- 0.8 0 2 ping 50000 ------- 1 0.0 4.0 -1 14
+ 0.8 5 2 ping 60000 ------- 2 5.0 6.0 -1 15
- 0.804 2 4 ping 50000 ------- 1 0.0 4.0 -1 2
r 0.804 0 2 ping 50000 ------- 1 0.0 4.0 -1 8
+ 0.804 2 4 ping 50000 ------- 1 0.0 4.0 -1 8
r 0.88 5 2 ping 60000 ------- 2 5.0 6.0 -1 1
+ 0.88 2 6 ping 60000 ------- 2 5.0 6.0 -1 1
- 0.88 2 6 ping 60000 ------- 2 5.0 6.0 -1 1
+ 0.9 0 2 ping 50000 ------- 1 0.0 4.0 -1 16
- 0.9 0 2 ping 50000 ------- 1 0.0 4.0 -1 16
+ 0.9 5 2 ping 60000 ------- 2 5.0 6.0 -1 17
r 0.904 0 2 ping 50000 ------- 1 0.0 4.0 -1 10
+ 0.904 2 4 ping 50000 ------- 1 0.0 4.0 -1 10
d 0.904 2 4 ping 50000 ------- 1 0.0 4.0 -1 10
+ 1 0 2 ping 50000 ------- 1 0.0 4.0 -1 18
- 1 0 2 ping 50000 ------- 1 0.0 4.0 -1 18
+ 1 5 2 ping 60000 ------- 2 5.0 6.0 -1 19
r 1.004 0 2 ping 50000 ------- 1 0.0 4.0 -1 12
+ 1.004 2 4 ping 50000 ------- 1 0.0 4.0 -1 12
d 1.004 2 4 ping 50000 ------- 1 0.0 4.0 -1 12
- 1.06 5 2 ping 60000 ------- 2 5.0 6.0 -1 5
+ 1.1 0 2 ping 50000 ------- 1 0.0 4.0 -1 20
- 1.1 0 2 ping 50000 ------- 1 0.0 4.0 -1 20
+ 1.1 5 2 ping 60000 ------- 2 5.0 6.0 -1 21
r 1.104 2 4 ping 50000 ------- 1 0.0 4.0 -1 0
+ 1.104 4 2 ping 64 ------- 0 4.0 0.0 -1 22
- 1.104 4 2 ping 64 ------- 0 4.0 0.0 -1 22
r 1.104 0 2 ping 50000 ------- 1 0.0 4.0 -1 14
+ 1.104 2 4 ping 50000 ------- 1 0.0 4.0 -1 14
d 1.104 2 4 ping 50000 ------- 1 0.0 4.0 -1 14
+ 1.2 0 2 ping 50000 ------- 1 0.0 4.0 -1 23
- 1.2 0 2 ping 50000 ------- 1 0.0 4.0 -1 23
+ 1.2 5 2 ping 60000 ------- 2 5.0 6.0 -1 24
r 1.204 0 2 ping 50000 ------- 1 0.0 4.0 -1 16
+ 1.204 2 4 ping 50000 ------- 1 0.0 4.0 -1 16
d 1.204 2 4 ping 50000 ------- 1 0.0 4.0 -1 16
- 1.204 2 4 ping 50000 ------- 1 0.0 4.0 -1 4
+ 1.3 0 2 ping 50000 ------- 1 0.0 4.0 -1 25
- 1.3 0 2 ping 50000 ------- 1 0.0 4.0 -1 25
+ 1.3 5 2 ping 60000 ------- 2 5.0 6.0 -1 26
r 1.304 0 2 ping 50000 ------- 1 0.0 4.0 -1 18
+ 1.304 2 4 ping 50000 ------- 1 0.0 4.0 -1 18
r 1.36 5 2 ping 60000 ------- 2 5.0 6.0 -1 3
+ 1.36 2 6 ping 60000 ------- 2 5.0 6.0 -1 3
- 1.36 2 6 ping 60000 ------- 2 5.0 6.0 -1 3
+ 1.4 0 2 ping 50000 ------- 1 0.0 4.0 -1 27
- 1.4 0 2 ping 50000 ------- 1 0.0 4.0 -1 27
+ 1.4 5 2 ping 60000 ------- 2 5.0 6.0 -1 28
r 1.404 0 2 ping 50000 ------- 1 0.0 4.0 -1 20
+ 1.404 2 4 ping 50000 ------- 1 0.0 4.0 -1 20
d 1.404 2 4 ping 50000 ------- 1 0.0 4.0 -1 20
r 1.404512 4 2 ping 64 ------- 0 4.0 0.0 -1 22
+ 1.404512 2 0 ping 64 ------- 0 4.0 0.0 -1 22
- 1.404512 2 0 ping 64 ------- 0 4.0 0.0 -1 22
+ 1.5 0 2 ping 50000 ------- 1 0.0 4.0 -1 29
- 1.5 0 2 ping 50000 ------- 1 0.0 4.0 -1 29
+ 1.5 5 2 ping 60000 ------- 2 5.0 6.0 -1 30
r 1.504 2 4 ping 50000 ------- 1 0.0 4.0 -1 2
+ 1.504 4 2 ping 64 ------- 0 4.0 0.0 -1 31
- 1.504 4 2 ping 64 ------- 0 4.0 0.0 -1 31
r 1.504 0 2 ping 50000 ------- 1 0.0 4.0 -1 23
+ 1.504 2 4 ping 50000 ------- 1 0.0 4.0 -1 23
d 1.504 2 4 ping 50000 ------- 1 0.0 4.0 -1 23
- 1.54 5 2 ping 60000 ------- 2 5.0 6.0 -1 7
+ 1.6 0 2 ping 50000 ------- 1 0.0 4.0 -1 32
- 1.6 0 2 ping 50000 ------- 1 0.0 4.0 -1 32
+ 1.6 5 2 ping 60000 ------- 2 5.0 6.0 -1 33
- 1.604 2 4 ping 50000 ------- 1 0.0 4.0 -1 8
r 1.604 0 2 ping 50000 ------- 1 0.0 4.0 -1 25
+ 1.604 2 4 ping 50000 ------- 1 0.0 4.0 -1 25
r 1.66 2 6 ping 60000 ------- 2 5.0 6.0 -1 1
+ 1.66 6 2 ping 64 ------- 0 6.0 5.0 -1 34
- 1.66 6 2 ping 64 ------- 0 6.0 5.0 -1 34
+ 1.7 0 2 ping 50000 ------- 1 0.0 4.0 -1 35
- 1.7 0 2 ping 50000 ------- 1 0.0 4.0 -1 35
+ 1.7 5 2 ping 60000 ------- 2 5.0 6.0 -1 36
r 1.704 0 2 ping 50000 ------- 1 0.0 4.0 -1 27
+ 1.704 2 4 ping 50000 ------- 1 0.0 4.0 -1 27
d 1.704 2 4 ping 50000 ------- 1 0.0 4.0 -1 27
r 1.704517 2 0 ping 64 ------- 0 4.0 0.0 -1 22
+ 1.8 0 2 ping 50000 ------- 1 0.0 4.0 -1 37
- 1.8 0 2 ping 50000 ------- 1 0.0 4.0 -1 37
+ 1.8 5 2 ping 60000 ------- 2 5.0 6.0 -1 38
r 1.804 0 2 ping 50000 ------- 1 0.0 4.0 -1 29
+ 1.804 2 4 ping 50000 ------- 1 0.0 4.0 -1 29
d 1.804 2 4 ping 50000 ------- 1 0.0 4.0 -1 29
r 1.804512 4 2 ping 64 ------- 0 4.0 0.0 -1 31
+ 1.804512 2 0 ping 64 ------- 0 4.0 0.0 -1 31
- 1.804512 2 0 ping 64 ------- 0 4.0 0.0 -1 31
r 1.84 5 2 ping 60000 ------- 2 5.0 6.0 -1 5
+ 1.84 2 6 ping 60000 ------- 2 5.0 6.0 -1 5
- 1.84 2 6 ping 60000 ------- 2 5.0 6.0 -1 5
r 1.904 2 4 ping 50000 ------- 1 0.0 4.0 -1 4
+ 1.904 4 2 ping 64 ------- 0 4.0 0.0 -1 39
- 1.904 4 2 ping 64 ------- 0 4.0 0.0 -1 39
r 1.904 0 2 ping 50000 ------- 1 0.0 4.0 -1 32
+ 1.904 2 4 ping 50000 ------- 1 0.0 4.0 -1 32
d 1.904 2 4 ping 50000 ------- 1 0.0 4.0 -1 32
r 1.960512 6 2 ping 64 ------- 0 6.0 5.0 -1 34
+ 1.960512 2 5 ping 64 ------- 0 6.0 5.0 -1 34
- 1.960512 2 5 ping 64 ------- 0 6.0 5.0 -1 34
- 2.004 2 4 ping 50000 ------- 1 0.0 4.0 -1 18
r 2.004 0 2 ping 50000 ------- 1 0.0 4.0 -1 35
+ 2.004 2 4 ping 50000 ------- 1 0.0 4.0 -1 35
- 2.02 5 2 ping 60000 ------- 2 5.0 6.0 -1 9
r 2.104 0 2 ping 50000 ------- 1 0.0 4.0 -1 37
+ 2.104 2 4 ping 50000 ------- 1 0.0 4.0 -1 37
d 2.104 2 4 ping 50000 ------- 1 0.0 4.0 -1 37
r 2.104517 2 0 ping 64 ------- 0 4.0 0.0 -1 31
r 2.14 2 6 ping 60000 ------- 2 5.0 6.0 -1 3
+ 2.14 6 2 ping 64 ------- 0 6.0 5.0 -1 40
- 2.14 6 2 ping 64 ------- 0 6.0 5.0 -1 40
r 2.204512 4 2 ping 64 ------- 0 4.0 0.0 -1 39
+ 2.204512 2 0 ping 64 ------- 0 4.0 0.0 -1 39
- 2.204512 2 0 ping 64 ------- 0 4.0 0.0 -1 39
r 2.261024 2 5 ping 64 ------- 0 6.0 5.0 -1 34
r 2.304 2 4 ping 50000 ------- 1 0.0 4.0 -1 8
+ 2.304 4 2 ping 64 ------- 0 4.0 0.0 -1 41
- 2.304 4 2 ping 64 ------- 0 4.0 0.0 -1 41
r 2.32 5 2 ping 60000 ------- 2 5.0 6.0 -1 7
+ 2.32 2 6 ping 60000 ------- 2 5.0 6.0 -1 7
- 2.32 2 6 ping 60000 ------- 2 5.0 6.0 -1 7
- 2.404 2 4 ping 50000 ------- 1 0.0 4.0 -1 25
r 2.440512 6 2 ping 64 ------- 0 6.0 5.0 -1 40
+ 2.440512 2 5 ping 64 ------- 0 6.0 5.0 -1 40
- 2.440512 2 5 ping 64 ------- 0 6.0 5.0 -1 40
- 2.5 5 2 ping 60000 ------- 2 5.0 6.0 -1 11
r 2.504517 2 0 ping 64 ------- 0 4.0 0.0 -1 39
r 2.604512 4 2 ping 64 ------- 0 4.0 0.0 -1 41
+ 2.604512 2 0 ping 64 ------- 0 4.0 0.0 -1 41
- 2.604512 2 0 ping 64 ------- 0 4.0 0.0 -1 41
r 2.62 2 6 ping 60000 ------- 2 5.0 6.0 -1 5
+ 2.62 6 2 ping 64 ------- 0 6.0 5.0 -1 42
- 2.62 6 2 ping 64 ------- 0 6.0 5.0 -1 42
r 2.704 2 4 ping 50000 ------- 1 0.0 4.0 -1 18
+ 2.704 4 2 ping 64 ------- 0 4.0 0.0 -1 43
- 2.704 4 2 ping 64 ------- 0 4.0 0.0 -1 43
r 2.741024 2 5 ping 64 ------- 0 6.0 5.0 -1 40
r 2.8 5 2 ping 60000 ------- 2 5.0 6.0 -1 9
+ 2.8 2 6 ping 60000 ------- 2 5.0 6.0 -1 9
- 2.8 2 6 ping 60000 ------- 2 5.0 6.0 -1 9
- 2.804 2 4 ping 50000 ------- 1 0.0 4.0 -1 35
r 2.904517 2 0 ping 64 ------- 0 4.0 0.0 -1 41
r 2.920512 6 2 ping 64 ------- 0 6.0 5.0 -1 42
+ 2.920512 2 5 ping 64 ------- 0 6.0 5.0 -1 42
- 2.920512 2 5 ping 64 ------- 0 6.0 5.0 -1 42
- 2.98 5 2 ping 60000 ------- 2 5.0 6.0 -1 13
r 3.004512 4 2 ping 64 ------- 0 4.0 0.0 -1 43
+ 3.004512 2 0 ping 64 ------- 0 4.0 0.0 -1 43
- 3.004512 2 0 ping 64 ------- 0 4.0 0.0 -1 43
r 3.1 2 6 ping 60000 ------- 2 5.0 6.0 -1 7
+ 3.1 6 2 ping 64 ------- 0 6.0 5.0 -1 44
- 3.1 6 2 ping 64 ------- 0 6.0 5.0 -1 44
r 3.104 2 4 ping 50000 ------- 1 0.0 4.0 -1 25
+ 3.104 4 2 ping 64 ------- 0 4.0 0.0 -1 45
- 3.104 4 2 ping 64 ------- 0 4.0 0.0 -1 45
r 3.221024 2 5 ping 64 ------- 0 6.0 5.0 -1 42
r 3.28 5 2 ping 60000 ------- 2 5.0 6.0 -1 11
+ 3.28 2 6 ping 60000 ------- 2 5.0 6.0 -1 11
- 3.28 2 6 ping 60000 ------- 2 5.0 6.0 -1 11
r 3.304517 2 0 ping 64 ------- 0 4.0 0.0 -1 43
r 3.400512 6 2 ping 64 ------- 0 6.0 5.0 -1 44
+ 3.400512 2 5 ping 64 ------- 0 6.0 5.0 -1 44
- 3.400512 2 5 ping 64 ------- 0 6.0 5.0 -1 44
r 3.404512 4 2 ping 64 ------- 0 4.0 0.0 -1 45
+ 3.404512 2 0 ping 64 ------- 0 4.0 0.0 -1 45
- 3.404512 2 0 ping 64 ------- 0 4.0 0.0 -1 45
- 3.46 5 2 ping 60000 ------- 2 5.0 6.0 -1 15
r 3.504 2 4 ping 50000 ------- 1 0.0 4.0 -1 35
+ 3.504 4 2 ping 64 ------- 0 4.0 0.0 -1 46
- 3.504 4 2 ping 64 ------- 0 4.0 0.0 -1 46
r 3.58 2 6 ping 60000 ------- 2 5.0 6.0 -1 9
+ 3.58 6 2 ping 64 ------- 0 6.0 5.0 -1 47
- 3.58 6 2 ping 64 ------- 0 6.0 5.0 -1 47
r 3.701024 2 5 ping 64 ------- 0 6.0 5.0 -1 44
r 3.704517 2 0 ping 64 ------- 0 4.0 0.0 -1 45
r 3.76 5 2 ping 60000 ------- 2 5.0 6.0 -1 13
+ 3.76 2 6 ping 60000 ------- 2 5.0 6.0 -1 13
- 3.76 2 6 ping 60000 ------- 2 5.0 6.0 -1 13
r 3.804512 4 2 ping 64 ------- 0 4.0 0.0 -1 46
+ 3.804512 2 0 ping 64 ------- 0 4.0 0.0 -1 46
- 3.804512 2 0 ping 64 ------- 0 4.0 0.0 -1 46
r 3.880512 6 2 ping 64 ------- 0 6.0 5.0 -1 47
+ 3.880512 2 5 ping 64 ------- 0 6.0 5.0 -1 47
- 3.880512 2 5 ping 64 ------- 0 6.0 5.0 -1 47
- 3.94 5 2 ping 60000 ------- 2 5.0 6.0 -1 17
r 4.06 2 6 ping 60000 ------- 2 5.0 6.0 -1 11
+ 4.06 6 2 ping 64 ------- 0 6.0 5.0 -1 48
- 4.06 6 2 ping 64 ------- 0 6.0 5.0 -1 48
r 4.104517 2 0 ping 64 ------- 0 4.0 0.0 -1 46
r 4.181024 2 5 ping 64 ------- 0 6.0 5.0 -1 47
r 4.24 5 2 ping 60000 ------- 2 5.0 6.0 -1 15
+ 4.24 2 6 ping 60000 ------- 2 5.0 6.0 -1 15
- 4.24 2 6 ping 60000 ------- 2 5.0 6.0 -1 15
r 4.360512 6 2 ping 64 ------- 0 6.0 5.0 -1 48
+ 4.360512 2 5 ping 64 ------- 0 6.0 5.0 -1 48
- 4.360512 2 5 ping 64 ------- 0 6.0 5.0 -1 48
- 4.42 5 2 ping 60000 ------- 2 5.0 6.0 -1 19
r 4.54 2 6 ping 60000 ------- 2 5.0 6.0 -1 13
+ 4.54 6 2 ping 64 ------- 0 6.0 5.0 -1 49
- 4.54 6 2 ping 64 ------- 0 6.0 5.0 -1 49
r 4.661024 2 5 ping 64 ------- 0 6.0 5.0 -1 48
r 4.72 5 2 ping 60000 ------- 2 5.0 6.0 -1 17
+ 4.72 2 6 ping 60000 ------- 2 5.0 6.0 -1 17
- 4.72 2 6 ping 60000 ------- 2 5.0 6.0 -1 17
r 4.840512 6 2 ping 64 ------- 0 6.0 5.0 -1 49
+ 4.840512 2 5 ping 64 ------- 0 6.0 5.0 -1 49
- 4.840512 2 5 ping 64 ------- 0 6.0 5.0 -1 49
- 4.9 5 2 ping 60000 ------- 2 5.0 6.0 -1 21
