V -t * -v 1.0a5 -a 0
A -t * -n 1 -p 0 -o 0x7fffffff -c 30 -a 1
A -t * -h 1 -m 1073741823 -s 0
n -t * -a 4 -s 4 -S UP -v circle -c black -i black
n -t * -a 0 -s 0 -S UP -v circle -c black -i black
n -t * -a 1 -s 1 -S UP -v circle -c black -i black
n -t * -a 2 -s 2 -S UP -v circle -c black -i black
n -t * -a 3 -s 3 -S UP -v circle -c black -i black
l -t * -s 0 -d 1 -S UP -r 1000000 -D 0.01 -c black
l -t * -s 0 -d 2 -S UP -r 1000000 -D 0.01 -c black
l -t * -s 0 -d 3 -S UP -r 1000000 -D 0.050000000000000003 -c black
l -t * -s 0 -d 4 -S UP -r 1000000 -D 0.050000000000000003 -c black
+ -t 0.5 -s 0 -d 4 -p cbr -e 500 -c 0 -i 0 -a 0 -x {0.0 4.1 0 ------- null}
- -t 0.5 -s 0 -d 4 -p cbr -e 500 -c 0 -i 0 -a 0 -x {0.0 4.1 0 ------- null}
h -t 0.5 -s 0 -d 4 -p cbr -e 500 -c 0 -i 0 -a 0 -x {0.0 4.1 -1 ------- null}
+ -t 0.5 -s 1 -d 0 -p cbr -e 500 -c 0 -i 1 -a 0 -x {1.0 0.1 0 ------- null}
- -t 0.5 -s 1 -d 0 -p cbr -e 500 -c 0 -i 1 -a 0 -x {1.0 0.1 0 ------- null}
h -t 0.5 -s 1 -d 0 -p cbr -e 500 -c 0 -i 1 -a 0 -x {1.0 0.1 -1 ------- null}
+ -t 0.5 -s 2 -d 0 -p cbr -e 500 -c 0 -i 2 -a 0 -x {2.0 1.1 0 ------- null}
- -t 0.5 -s 2 -d 0 -p cbr -e 500 -c 0 -i 2 -a 0 -x {2.0 1.1 0 ------- null}
h -t 0.5 -s 2 -d 0 -p cbr -e 500 -c 0 -i 2 -a 0 -x {2.0 1.1 -1 ------- null}
+ -t 0.5 -s 3 -d 0 -p cbr -e 500 -c 0 -i 3 -a 0 -x {3.0 2.1 0 ------- null}
- -t 0.5 -s 3 -d 0 -p cbr -e 500 -c 0 -i 3 -a 0 -x {3.0 2.1 0 ------- null}
h -t 0.5 -s 3 -d 0 -p cbr -e 500 -c 0 -i 3 -a 0 -x {3.0 2.1 -1 ------- null}
+ -t 0.5 -s 4 -d 0 -p cbr -e 500 -c 0 -i 4 -a 0 -x {4.0 3.1 0 ------- null}
- -t 0.5 -s 4 -d 0 -p cbr -e 500 -c 0 -i 4 -a 0 -x {4.0 3.1 0 ------- null}
h -t 0.5 -s 4 -d 0 -p cbr -e 500 -c 0 -i 4 -a 0 -x {4.0 3.1 -1 ------- null}
+ -t 0.508928571428571 -s 0 -d 4 -p cbr -e 500 -c 0 -i 5 -a 0 -x {0.0 4.1 1 ------- null}
- -t 0.508928571428571 -s 0 -d 4 -p cbr -e 500 -c 0 -i 5 -a 0 -x {0.0 4.1 1 ------- null}
h -t 0.508928571428571 -s 0 -d 4 -p cbr -e 500 -c 0 -i 5 -a 0 -x {0.0 4.1 -1 ------- null}
+ -t 0.508928571428571 -s 1 -d 0 -p cbr -e 500 -c 0 -i 6 -a 0 -x {1.0 0.1 1 ------- null}
- -t 0.508928571428571 -s 1 -d 0 -p cbr -e 500 -c 0 -i 6 -a 0 -x {1.0 0.1 1 ------- null}
h -t 0.508928571428571 -s 1 -d 0 -p cbr -e 500 -c 0 -i 6 -a 0 -x {1.0 0.1 -1 ------- null}
+ -t 0.508928571428571 -s 2 -d 0 -p cbr -e 500 -c 0 -i 7 -a 0 -x {2.0 1.1 1 ------- null}
- -t 0.508928571428571 -s 2 -d 0 -p cbr -e 500 -c 0 -i 7 -a 0 -x {2.0 1.1 1 ------- null}
h -t 0.508928571428571 -s 2 -d 0 -p cbr -e 500 -c 0 -i 7 -a 0 -x {2.0 1.1 -1 ------- null}
+ -t 0.508928571428571 -s 3 -d 0 -p cbr -e 500 -c 0 -i 8 -a 0 -x {3.0 2.1 1 ------- null}
- -t 0.508928571428571 -s 3 -d 0 -p cbr -e 500 -c 0 -i 8 -a 0 -x {3.0 2.1 1 ------- null}
h -t 0.508928571428571 -s 3 -d 0 -p cbr -e 500 -c 0 -i 8 -a 0 -x {3.0 2.1 -1 ------- null}
+ -t 0.508928571428571 -s 4 -d 0 -p cbr -e 500 -c 0 -i 9 -a 0 -x {4.0 3.1 1 ------- null}
- -t 0.508928571428571 -s 4 -d 0 -p cbr -e 500 -c 0 -i 9 -a 0 -x {4.0 3.1 1 ------- null}
h -t 0.508928571428571 -s 4 -d 0 -p cbr -e 500 -c 0 -i 9 -a 0 -x {4.0 3.1 -1 ------- null}
r -t 0.514 -s 1 -d 0 -p cbr -e 500 -c 0 -i 1 -a 0 -x {1.0 0.1 0 ------- null}
r -t 0.514 -s 2 -d 0 -p cbr -e 500 -c 0 -i 2 -a 0 -x {2.0 1.1 0 ------- null}
+ -t 0.514 -s 0 -d 1 -p cbr -e 500 -c 0 -i 2 -a 0 -x {2.0 1.1 0 ------- null}
- -t 0.514 -s 0 -d 1 -p cbr -e 500 -c 0 -i 2 -a 0 -x {2.0 1.1 0 ------- null}
h -t 0.514 -s 0 -d 1 -p cbr -e 500 -c 0 -i 2 -a 0 -x {2.0 1.1 -1 ------- null}
+ -t 0.517857142857143 -s 0 -d 4 -p cbr -e 500 -c 0 -i 10 -a 0 -x {0.0 4.1 2 ------- null}
- -t 0.517857142857143 -s 0 -d 4 -p cbr -e 500 -c 0 -i 10 -a 0 -x {0.0 4.1 2 ------- null}
h -t 0.517857142857143 -s 0 -d 4 -p cbr -e 500 -c 0 -i 10 -a 0 -x {0.0 4.1 -1 ------- null}
+ -t 0.517857142857143 -s 1 -d 0 -p cbr -e 500 -c 0 -i 11 -a 0 -x {1.0 0.1 2 ------- null}
- -t 0.517857142857143 -s 1 -d 0 -p cbr -e 500 -c 0 -i 11 -a 0 -x {1.0 0.1 2 ------- null}
h -t 0.517857142857143 -s 1 -d 0 -p cbr -e 500 -c 0 -i 11 -a 0 -x {1.0 0.1 -1 ------- null}
+ -t 0.517857142857143 -s 2 -d 0 -p cbr -e 500 -c 0 -i 12 -a 0 -x {2.0 1.1 2 ------- null}
- -t 0.517857142857143 -s 2 -d 0 -p cbr -e 500 -c 0 -i 12 -a 0 -x {2.0 1.1 2 ------- null}
h -t 0.517857142857143 -s 2 -d 0 -p cbr -e 500 -c 0 -i 12 -a 0 -x {2.0 1.1 -1 ------- null}
+ -t 0.517857142857143 -s 3 -d 0 -p cbr -e 500 -c 0 -i 13 -a 0 -x {3.0 2.1 2 ------- null}
- -t 0.517857142857143 -s 3 -d 0 -p cbr -e 500 -c 0 -i 13 -a 0 -x {3.0 2.1 2 ------- null}
h -t 0.517857142857143 -s 3 -d 0 -p cbr -e 500 -c 0 -i 13 -a 0 -x {3.0 2.1 -1 ------- null}
+ -t 0.517857142857143 -s 4 -d 0 -p cbr -e 500 -c 0 -i 14 -a 0 -x {4.0 3.1 2 ------- null}
- -t 0.517857142857143 -s 4 -d 0 -p cbr -e 500 -c 0 -i 14 -a 0 -x {4.0 3.1 2 ------- null}
h -t 0.517857142857143 -s 4 -d 0 -p cbr -e 500 -c 0 -i 14 -a 0 -x {4.0 3.1 -1 ------- null}
r -t 0.522928571428571 -s 1 -d 0 -p cbr -e 500 -c 0 -i 6 -a 0 -x {1.0 0.1 1 ------- null}
r -t 0.522928571428571 -s 2 -d 0 -p cbr -e 500 -c 0 -i 7 -a 0 -x {2.0 1.1 1 ------- null}
+ -t 0.522928571428571 -s 0 -d 1 -p cbr -e 500 -c 0 -i 7 -a 0 -x {2.0 1.1 1 ------- null}
- -t 0.522928571428571 -s 0 -d 1 -p cbr -e 500 -c 0 -i 7 -a 0 -x {2.0 1.1 1 ------- null}
h -t 0.522928571428571 -s 0 -d 1 -p cbr -e 500 -c 0 -i 7 -a 0 -x {2.0 1.1 -1 ------- null}
+ -t 0.526785714285714 -s 0 -d 4 -p cbr -e 500 -c 0 -i 15 -a 0 -x {0.0 4.1 3 ------- null}
- -t 0.526785714285714 -s 0 -d 4 -p cbr -e 500 -c 0 -i 15 -a 0 -x {0.0 4.1 3 ------- null}
h -t 0.526785714285714 -s 0 -d 4 -p cbr -e 500 -c 0 -i 15 -a 0 -x {0.0 4.1 -1 ------- null}
+ -t 0.526785714285714 -s 1 -d 0 -p cbr -e 500 -c 0 -i 16 -a 0 -x {1.0 0.1 3 ------- null}
- -t 0.526785714285714 -s 1 -d 0 -p cbr -e 500 -c 0 -i 16 -a 0 -x {1.0 0.1 3 ------- null}
h -t 0.526785714285714 -s 1 -d 0 -p cbr -e 500 -c 0 -i 16 -a 0 -x {1.0 0.1 -1 ------- null}
+ -t 0.526785714285714 -s 2 -d 0 -p cbr -e 500 -c 0 -i 17 -a 0 -x {2.0 1.1 3 ------- null}
- -t 0.526785714285714 -s 2 -d 0 -p cbr -e 500 -c 0 -i 17 -a 0 -x {2.0 1.1 3 ------- null}
h -t 0.526785714285714 -s 2 -d 0 -p cbr -e 500 -c 0 -i 17 -a 0 -x {2.0 1.1 -1 ------- null}
+ -t 0.526785714285714 -s 3 -d 0 -p cbr -e 500 -c 0 -i 18 -a 0 -x {3.0 2.1 3 ------- null}
- -t 0.526785714285714 -s 3 -d 0 -p cbr -e 500 -c 0 -i 18 -a 0 -x {3.0 2.1 3 ------- null}
h -t 0.526785714285714 -s 3 -d 0 -p cbr -e 500 -c 0 -i 18 -a 0 -x {3.0 2.1 -1 ------- null}
+ -t 0.526785714285714 -s 4 -d 0 -p cbr -e 500 -c 0 -i 19 -a 0 -x {4.0 3.1 3 ------- null}
- -t 0.526785714285714 -s 4 -d 0 -p cbr -e 500 -c 0 -i 19 -a 0 -x {4.0 3.1 3 ------- null}
h -t 0.526785714285714 -s 4 -d 0 -p cbr -e 500 -c 0 -i 19 -a 0 -x {4.0 3.1 -1 ------- null}
r -t 0.528 -s 0 -d 1 -p cbr -e 500 -c 0 -i 2 -a 0 -x {2.0 1.1 0 ------- null}
r -t 0.531857142857143 -s 1 -d 0 -p cbr -e 500 -c 0 -i 11 -a 0 -x {1.0 0.1 2 ------- null}
r -t 0.531857142857143 -s 2 -d 0 -p cbr -e 500 -c 0 -i 12 -a 0 -x {2.0 1.1 2 ------- null}
+ -t 0.531857142857143 -s 0 -d 1 -p cbr -e 500 -c 0 -i 12 -a 0 -x {2.0 1.1 2 ------- null}
- -t 0.531857142857143 -s 0 -d 1 -p cbr -e 500 -c 0 -i 12 -a 0 -x {2.0 1.1 2 ------- null}
h -t 0.531857142857143 -s 0 -d 1 -p cbr -e 500 -c 0 -i 12 -a 0 -x {2.0 1.1 -1 ------- null}
+ -t 0.535714285714286 -s 0 -d 4 -p cbr -e 500 -c 0 -i 20 -a 0 -x {0.0 4.1 4 ------- null}
- -t 0.535714285714286 -s 0 -d 4 -p cbr -e 500 -c 0 -i 20 -a 0 -x {0.0 4.1 4 ------- null}
h -t 0.535714285714286 -s 0 -d 4 -p cbr -e 500 -c 0 -i 20 -a 0 -x {0.0 4.1 -1 ------- null}
+ -t 0.535714285714286 -s 1 -d 0 -p cbr -e 500 -c 0 -i 21 -a 0 -x {1.0 0.1 4 ------- null}
- -t 0.535714285714286 -s 1 -d 0 -p cbr -e 500 -c 0 -i 21 -a 0 -x {1.0 0.1 4 ------- null}
h -t 0.535714285714286 -s 1 -d 0 -p cbr -e 500 -c 0 -i 21 -a 0 -x {1.0 0.1 -1 ------- null}
+ -t 0.535714285714286 -s 2 -d 0 -p cbr -e 500 -c 0 -i 22 -a 0 -x {2.0 1.1 4 ------- null}
- -t 0.535714285714286 -s 2 -d 0 -p cbr -e 500 -c 0 -i 22 -a 0 -x {2.0 1.1 4 ------- null}
h -t 0.535714285714286 -s 2 -d 0 -p cbr -e 500 -c 0 -i 22 -a 0 -x {2.0 1.1 -1 ------- null}
+ -t 0.535714285714286 -s 3 -d 0 -p cbr -e 500 -c 0 -i 23 -a 0 -x {3.0 2.1 4 ------- null}
- -t 0.535714285714286 -s 3 -d 0 -p cbr -e 500 -c 0 -i 23 -a 0 -x {3.0 2.1 4 ------- null}
h -t 0.535714285714286 -s 3 -d 0 -p cbr -e 500 -c 0 -i 23 -a 0 -x {3.0 2.1 -1 ------- null}
+ -t 0.535714285714286 -s 4 -d 0 -p cbr -e 500 -c 0 -i 24 -a 0 -x {4.0 3.1 4 ------- null}
- -t 0.535714285714286 -s 4 -d 0 -p cbr -e 500 -c 0 -i 24 -a 0 -x {4.0 3.1 4 ------- null}
h -t 0.535714285714286 -s 4 -d 0 -p cbr -e 500 -c 0 -i 24 -a 0 -x {4.0 3.1 -1 ------- null}
r -t 0.536928571428571 -s 0 -d 1 -p cbr -e 500 -c 0 -i 7 -a 0 -x {2.0 1.1 1 ------- null}
r -t 0.540785714285714 -s 1 -d 0 -p cbr -e 500 -c 0 -i 16 -a 0 -x {1.0 0.1 3 ------- null}
r -t 0.540785714285714 -s 2 -d 0 -p cbr -e 500 -c 0 -i 17 -a 0 -x {2.0 1.1 3 ------- null}
+ -t 0.540785714285714 -s 0 -d 1 -p cbr -e 500 -c 0 -i 17 -a 0 -x {2.0 1.1 3 ------- null}
- -t 0.540785714285714 -s 0 -d 1 -p cbr -e 500 -c 0 -i 17 -a 0 -x {2.0 1.1 3 ------- null}
h -t 0.540785714285714 -s 0 -d 1 -p cbr -e 500 -c 0 -i 17 -a 0 -x {2.0 1.1 -1 ------- null}
+ -t 0.544642857142857 -s 0 -d 4 -p cbr -e 500 -c 0 -i 25 -a 0 -x {0.0 4.1 5 ------- null}
- -t 0.544642857142857 -s 0 -d 4 -p cbr -e 500 -c 0 -i 25 -a 0 -x {0.0 4.1 5 ------- null}
h -t 0.544642857142857 -s 0 -d 4 -p cbr -e 500 -c 0 -i 25 -a 0 -x {0.0 4.1 -1 ------- null}
+ -t 0.544642857142857 -s 1 -d 0 -p cbr -e 500 -c 0 -i 26 -a 0 -x {1.0 0.1 5 ------- null}
- -t 0.544642857142857 -s 1 -d 0 -p cbr -e 500 -c 0 -i 26 -a 0 -x {1.0 0.1 5 ------- null}
h -t 0.544642857142857 -s 1 -d 0 -p cbr -e 500 -c 0 -i 26 -a 0 -x {1.0 0.1 -1 ------- null}
+ -t 0.544642857142857 -s 2 -d 0 -p cbr -e 500 -c 0 -i 27 -a 0 -x {2.0 1.1 5 ------- null}
- -t 0.544642857142857 -s 2 -d 0 -p cbr -e 500 -c 0 -i 27 -a 0 -x {2.0 1.1 5 ------- null}
h -t 0.544642857142857 -s 2 -d 0 -p cbr -e 500 -c 0 -i 27 -a 0 -x {2.0 1.1 -1 ------- null}
+ -t 0.544642857142857 -s 3 -d 0 -p cbr -e 500 -c 0 -i 28 -a 0 -x {3.0 2.1 5 ------- null}
- -t 0.544642857142857 -s 3 -d 0 -p cbr -e 500 -c 0 -i 28 -a 0 -x {3.0 2.1 5 ------- null}
h -t 0.544642857142857 -s 3 -d 0 -p cbr -e 500 -c 0 -i 28 -a 0 -x {3.0 2.1 -1 ------- null}
+ -t 0.544642857142857 -s 4 -d 0 -p cbr -e 500 -c 0 -i 29 -a 0 -x {4.0 3.1 5 ------- null}
- -t 0.544642857142857 -s 4 -d 0 -p cbr -e 500 -c 0 -i 29 -a 0 -x {4.0 3.1 5 ------- null}
h -t 0.544642857142857 -s 4 -d 0 -p cbr -e 500 -c 0 -i 29 -a 0 -x {4.0 3.1 -1 ------- null}
r -t 0.545857142857143 -s 0 -d 1 -p cbr -e 500 -c 0 -i 12 -a 0 -x {2.0 1.1 2 ------- null}
r -t 0.549714285714286 -s 1 -d 0 -p cbr -e 500 -c 0 -i 21 -a 0 -x {1.0 0.1 4 ------- null}
r -t 0.549714285714286 -s 2 -d 0 -p cbr -e 500 -c 0 -i 22 -a 0 -x {2.0 1.1 4 ------- null}
+ -t 0.549714285714286 -s 0 -d 1 -p cbr -e 500 -c 0 -i 22 -a 0 -x {2.0 1.1 4 ------- null}
- -t 0.549714285714286 -s 0 -d 1 -p cbr -e 500 -c 0 -i 22 -a 0 -x {2.0 1.1 4 ------- null}
h -t 0.549714285714286 -s 0 -d 1 -p cbr -e 500 -c 0 -i 22 -a 0 -x {2.0 1.1 -1 ------- null}
+ -t 0.553571428571428 -s 0 -d 4 -p cbr -e 500 -c 0 -i 30 -a 0 -x {0.0 4.1 6 ------- null}
- -t 0.553571428571428 -s 0 -d 4 -p cbr -e 500 -c 0 -i 30 -a 0 -x {0.0 4.1 6 ------- null}
h -t 0.553571428571428 -s 0 -d 4 -p cbr -e 500 -c 0 -i 30 -a 0 -x {0.0 4.1 -1 ------- null}
+ -t 0.553571428571428 -s 1 -d 0 -p cbr -e 500 -c 0 -i 31 -a 0 -x {1.0 0.1 6 ------- null}
- -t 0.553571428571428 -s 1 -d 0 -p cbr -e 500 -c 0 -i 31 -a 0 -x {1.0 0.1 6 ------- null}
h -t 0.553571428571428 -s 1 -d 0 -p cbr -e 500 -c 0 -i 31 -a 0 -x {1.0 0.1 -1 ------- null}
+ -t 0.553571428571428 -s 2 -d 0 -p cbr -e 500 -c 0 -i 32 -a 0 -x {2.0 1.1 6 ------- null}
- -t 0.553571428571428 -s 2 -d 0 -p cbr -e 500 -c 0 -i 32 -a 0 -x {2.0 1.1 6 ------- null}
h -t 0.553571428571428 -s 2 -d 0 -p cbr -e 500 -c 0 -i 32 -a 0 -x {2.0 1.1 -1 ------- null}
+ -t 0.553571428571428 -s 3 -d 0 -p cbr -e 500 -c 0 -i 33 -a 0 -x {3.0 2.1 6 ------- null}
- -t 0.553571428571428 -s 3 -d 0 -p cbr -e 500 -c 0 -i 33 -a 0 -x {3.0 2.1 6 ------- null}
h -t 0.553571428571428 -s 3 -d 0 -p cbr -e 500 -c 0 -i 33 -a 0 -x {3.0 2.1 -1 ------- null}
+ -t 0.553571428571428 -s 4 -d 0 -p cbr -e 500 -c 0 -i 34 -a 0 -x {4.0 3.1 6 ------- null}
- -t 0.553571428571428 -s 4 -d 0 -p cbr -e 500 -c 0 -i 34 -a 0 -x {4.0 3.1 6 ------- null}
h -t 0.553571428571428 -s 4 -d 0 -p cbr -e 500 -c 0 -i 34 -a 0 -x {4.0 3.1 -1 ------- null}
r -t 0.554 -s 0 -d 4 -p cbr -e 500 -c 0 -i 0 -a 0 -x {0.0 4.1 0 ------- null}
r -t 0.554 -s 3 -d 0 -p cbr -e 500 -c 0 -i 3 -a 0 -x {3.0 2.1 0 ------- null}
+ -t 0.554 -s 0 -d 2 -p cbr -e 500 -c 0 -i 3 -a 0 -x {3.0 2.1 0 ------- null}
- -t 0.554 -s 0 -d 2 -p cbr -e 500 -c 0 -i 3 -a 0 -x {3.0 2.1 0 ------- null}
h -t 0.554 -s 0 -d 2 -p cbr -e 500 -c 0 -i 3 -a 0 -x {3.0 2.1 -1 ------- null}
r -t 0.554 -s 4 -d 0 -p cbr -e 500 -c 0 -i 4 -a 0 -x {4.0 3.1 0 ------- null}
+ -t 0.554 -s 0 -d 3 -p cbr -e 500 -c 0 -i 4 -a 0 -x {4.0 3.1 0 ------- null}
- -t 0.554 -s 0 -d 3 -p cbr -e 500 -c 0 -i 4 -a 0 -x {4.0 3.1 0 ------- null}
h -t 0.554 -s 0 -d 3 -p cbr -e 500 -c 0 -i 4 -a 0 -x {4.0 3.1 -1 ------- null}
r -t 0.554785714285714 -s 0 -d 1 -p cbr -e 500 -c 0 -i 17 -a 0 -x {2.0 1.1 3 ------- null}
r -t 0.558642857142857 -s 1 -d 0 -p cbr -e 500 -c 0 -i 26 -a 0 -x {1.0 0.1 5 ------- null}
r -t 0.558642857142857 -s 2 -d 0 -p cbr -e 500 -c 0 -i 27 -a 0 -x {2.0 1.1 5 ------- null}
+ -t 0.558642857142857 -s 0 -d 1 -p cbr -e 500 -c 0 -i 27 -a 0 -x {2.0 1.1 5 ------- null}
- -t 0.558642857142857 -s 0 -d 1 -p cbr -e 500 -c 0 -i 27 -a 0 -x {2.0 1.1 5 ------- null}
h -t 0.558642857142857 -s 0 -d 1 -p cbr -e 500 -c 0 -i 27 -a 0 -x {2.0 1.1 -1 ------- null}
+ -t 0.5625 -s 0 -d 4 -p cbr -e 500 -c 0 -i 35 -a 0 -x {0.0 4.1 7 ------- null}
- -t 0.5625 -s 0 -d 4 -p cbr -e 500 -c 0 -i 35 -a 0 -x {0.0 4.1 7 ------- null}
h -t 0.5625 -s 0 -d 4 -p cbr -e 500 -c 0 -i 35 -a 0 -x {0.0 4.1 -1 ------- null}
+ -t 0.5625 -s 1 -d 0 -p cbr -e 500 -c 0 -i 36 -a 0 -x {1.0 0.1 7 ------- null}
- -t 0.5625 -s 1 -d 0 -p cbr -e 500 -c 0 -i 36 -a 0 -x {1.0 0.1 7 ------- null}
h -t 0.5625 -s 1 -d 0 -p cbr -e 500 -c 0 -i 36 -a 0 -x {1.0 0.1 -1 ------- null}
+ -t 0.5625 -s 2 -d 0 -p cbr -e 500 -c 0 -i 37 -a 0 -x {2.0 1.1 7 ------- null}
- -t 0.5625 -s 2 -d 0 -p cbr -e 500 -c 0 -i 37 -a 0 -x {2.0 1.1 7 ------- null}
h -t 0.5625 -s 2 -d 0 -p cbr -e 500 -c 0 -i 37 -a 0 -x {2.0 1.1 -1 ------- null}
+ -t 0.5625 -s 3 -d 0 -p cbr -e 500 -c 0 -i 38 -a 0 -x {3.0 2.1 7 ------- null}
- -t 0.5625 -s 3 -d 0 -p cbr -e 500 -c 0 -i 38 -a 0 -x {3.0 2.1 7 ------- null}
h -t 0.5625 -s 3 -d 0 -p cbr -e 500 -c 0 -i 38 -a 0 -x {3.0 2.1 -1 ------- null}
+ -t 0.5625 -s 4 -d 0 -p cbr -e 500 -c 0 -i 39 -a 0 -x {4.0 3.1 7 ------- null}
- -t 0.5625 -s 4 -d 0 -p cbr -e 500 -c 0 -i 39 -a 0 -x {4.0 3.1 7 ------- null}
h -t 0.5625 -s 4 -d 0 -p cbr -e 500 -c 0 -i 39 -a 0 -x {4.0 3.1 -1 ------- null}
r -t 0.562928571428571 -s 0 -d 4 -p cbr -e 500 -c 0 -i 5 -a 0 -x {0.0 4.1 1 ------- null}
r -t 0.562928571428571 -s 3 -d 0 -p cbr -e 500 -c 0 -i 8 -a 0 -x {3.0 2.1 1 ------- null}
+ -t 0.562928571428571 -s 0 -d 2 -p cbr -e 500 -c 0 -i 8 -a 0 -x {3.0 2.1 1 ------- null}
- -t 0.562928571428571 -s 0 -d 2 -p cbr -e 500 -c 0 -i 8 -a 0 -x {3.0 2.1 1 ------- null}
h -t 0.562928571428571 -s 0 -d 2 -p cbr -e 500 -c 0 -i 8 -a 0 -x {3.0 2.1 -1 ------- null}
r -t 0.562928571428571 -s 4 -d 0 -p cbr -e 500 -c 0 -i 9 -a 0 -x {4.0 3.1 1 ------- null}
+ -t 0.562928571428571 -s 0 -d 3 -p cbr -e 500 -c 0 -i 9 -a 0 -x {4.0 3.1 1 ------- null}
- -t 0.562928571428571 -s 0 -d 3 -p cbr -e 500 -c 0 -i 9 -a 0 -x {4.0 3.1 1 ------- null}
h -t 0.562928571428571 -s 0 -d 3 -p cbr -e 500 -c 0 -i 9 -a 0 -x {4.0 3.1 -1 ------- null}
r -t 0.563714285714286 -s 0 -d 1 -p cbr -e 500 -c 0 -i 22 -a 0 -x {2.0 1.1 4 ------- null}
r -t 0.567571428571428 -s 1 -d 0 -p cbr -e 500 -c 0 -i 31 -a 0 -x {1.0 0.1 6 ------- null}
r -t 0.567571428571428 -s 2 -d 0 -p cbr -e 500 -c 0 -i 32 -a 0 -x {2.0 1.1 6 ------- null}
+ -t 0.567571428571428 -s 0 -d 1 -p cbr -e 500 -c 0 -i 32 -a 0 -x {2.0 1.1 6 ------- null}
- -t 0.567571428571428 -s 0 -d 1 -p cbr -e 500 -c 0 -i 32 -a 0 -x {2.0 1.1 6 ------- null}
h -t 0.567571428571428 -s 0 -d 1 -p cbr -e 500 -c 0 -i 32 -a 0 -x {2.0 1.1 -1 ------- null}
r -t 0.568 -s 0 -d 2 -p cbr -e 500 -c 0 -i 3 -a 0 -x {3.0 2.1 0 ------- null}
+ -t 0.571428571428571 -s 0 -d 4 -p cbr -e 500 -c 0 -i 40 -a 0 -x {0.0 4.1 8 ------- null}
- -t 0.571428571428571 -s 0 -d 4 -p cbr -e 500 -c 0 -i 40 -a 0 -x {0.0 4.1 8 ------- null}
h -t 0.571428571428571 -s 0 -d 4 -p cbr -e 500 -c 0 -i 40 -a 0 -x {0.0 4.1 -1 ------- null}
+ -t 0.571428571428571 -s 1 -d 0 -p cbr -e 500 -c 0 -i 41 -a 0 -x {1.0 0.1 8 ------- null}
- -t 0.571428571428571 -s 1 -d 0 -p cbr -e 500 -c 0 -i 41 -a 0 -x {1.0 0.1 8 ------- null}
h -t 0.571428571428571 -s 1 -d 0 -p cbr -e 500 -c 0 -i 41 -a 0 -x {1.0 0.1 -1 ------- null}
+ -t 0.571428571428571 -s 2 -d 0 -p cbr -e 500 -c 0 -i 42 -a 0 -x {2.0 1.1 8 ------- null}
- -t 0.571428571428571 -s 2 -d 0 -p cbr -e 500 -c 0 -i 42 -a 0 -x {2.0 1.1 8 ------- null}
h -t 0.571428571428571 -s 2 -d 0 -p cbr -e 500 -c 0 -i 42 -a 0 -x {2.0 1.1 -1 ------- null}
+ -t 0.571428571428571 -s 3 -d 0 -p cbr -e 500 -c 0 -i 43 -a 0 -x {3.0 2.1 8 ------- null}
- -t 0.571428571428571 -s 3 -d 0 -p cbr -e 500 -c 0 -i 43 -a 0 -x {3.0 2.1 8 ------- null}
h -t 0.571428571428571 -s 3 -d 0 -p cbr -e 500 -c 0 -i 43 -a 0 -x {3.0 2.1 -1 ------- null}
+ -t 0.571428571428571 -s 4 -d 0 -p cbr -e 500 -c 0 -i 44 -a 0 -x {4.0 3.1 8 ------- null}
- -t 0.571428571428571 -s 4 -d 0 -p cbr -e 500 -c 0 -i 44 -a 0 -x {4.0 3.1 8 ------- null}
h -t 0.571428571428571 -s 4 -d 0 -p cbr -e 500 -c 0 -i 44 -a 0 -x {4.0 3.1 -1 ------- null}
r -t 0.571857142857143 -s 0 -d 4 -p cbr -e 500 -c 0 -i 10 -a 0 -x {0.0 4.1 2 ------- null}
r -t 0.571857142857143 -s 3 -d 0 -p cbr -e 500 -c 0 -i 13 -a 0 -x {3.0 2.1 2 ------- null}
+ -t 0.571857142857143 -s 0 -d 2 -p cbr -e 500 -c 0 -i 13 -a 0 -x {3.0 2.1 2 ------- null}
- -t 0.571857142857143 -s 0 -d 2 -p cbr -e 500 -c 0 -i 13 -a 0 -x {3.0 2.1 2 ------- null}
h -t 0.571857142857143 -s 0 -d 2 -p cbr -e 500 -c 0 -i 13 -a 0 -x {3.0 2.1 -1 ------- null}
r -t 0.571857142857143 -s 4 -d 0 -p cbr -e 500 -c 0 -i 14 -a 0 -x {4.0 3.1 2 ------- null}
+ -t 0.571857142857143 -s 0 -d 3 -p cbr -e 500 -c 0 -i 14 -a 0 -x {4.0 3.1 2 ------- null}
- -t 0.571857142857143 -s 0 -d 3 -p cbr -e 500 -c 0 -i 14 -a 0 -x {4.0 3.1 2 ------- null}
h -t 0.571857142857143 -s 0 -d 3 -p cbr -e 500 -c 0 -i 14 -a 0 -x {4.0 3.1 -1 ------- null}
r -t 0.572642857142857 -s 0 -d 1 -p cbr -e 500 -c 0 -i 27 -a 0 -x {2.0 1.1 5 ------- null}
r -t 0.5765 -s 1 -d 0 -p cbr -e 500 -c 0 -i 36 -a 0 -x {1.0 0.1 7 ------- null}
r -t 0.5765 -s 2 -d 0 -p cbr -e 500 -c 0 -i 37 -a 0 -x {2.0 1.1 7 ------- null}
+ -t 0.5765 -s 0 -d 1 -p cbr -e 500 -c 0 -i 37 -a 0 -x {2.0 1.1 7 ------- null}
- -t 0.5765 -s 0 -d 1 -p cbr -e 500 -c 0 -i 37 -a 0 -x {2.0 1.1 7 ------- null}
h -t 0.5765 -s 0 -d 1 -p cbr -e 500 -c 0 -i 37 -a 0 -x {2.0 1.1 -1 ------- null}
r -t 0.576928571428571 -s 0 -d 2 -p cbr -e 500 -c 0 -i 8 -a 0 -x {3.0 2.1 1 ------- null}
+ -t 0.580357142857143 -s 0 -d 4 -p cbr -e 500 -c 0 -i 45 -a 0 -x {0.0 4.1 9 ------- null}
- -t 0.580357142857143 -s 0 -d 4 -p cbr -e 500 -c 0 -i 45 -a 0 -x {0.0 4.1 9 ------- null}
h -t 0.580357142857143 -s 0 -d 4 -p cbr -e 500 -c 0 -i 45 -a 0 -x {0.0 4.1 -1 ------- null}
+ -t 0.580357142857143 -s 1 -d 0 -p cbr -e 500 -c 0 -i 46 -a 0 -x {1.0 0.1 9 ------- null}
- -t 0.580357142857143 -s 1 -d 0 -p cbr -e 500 -c 0 -i 46 -a 0 -x {1.0 0.1 9 ------- null}
h -t 0.580357142857143 -s 1 -d 0 -p cbr -e 500 -c 0 -i 46 -a 0 -x {1.0 0.1 -1 ------- null}
+ -t 0.580357142857143 -s 2 -d 0 -p cbr -e 500 -c 0 -i 47 -a 0 -x {2.0 1.1 9 ------- null}
- -t 0.580357142857143 -s 2 -d 0 -p cbr -e 500 -c 0 -i 47 -a 0 -x {2.0 1.1 9 ------- null}
h -t 0.580357142857143 -s 2 -d 0 -p cbr -e 500 -c 0 -i 47 -a 0 -x {2.0 1.1 -1 ------- null}
+ -t 0.580357142857143 -s 3 -d 0 -p cbr -e 500 -c 0 -i 48 -a 0 -x {3.0 2.1 9 ------- null}
- -t 0.580357142857143 -s 3 -d 0 -p cbr -e 500 -c 0 -i 48 -a 0 -x {3.0 2.1 9 ------- null}
h -t 0.580357142857143 -s 3 -d 0 -p cbr -e 500 -c 0 -i 48 -a 0 -x {3.0 2.1 -1 ------- null}
+ -t 0.580357142857143 -s 4 -d 0 -p cbr -e 500 -c 0 -i 49 -a 0 -x {4.0 3.1 9 ------- null}
- -t 0.580357142857143 -s 4 -d 0 -p cbr -e 500 -c 0 -i 49 -a 0 -x {4.0 3.1 9 ------- null}
h -t 0.580357142857143 -s 4 -d 0 -p cbr -e 500 -c 0 -i 49 -a 0 -x {4.0 3.1 -1 ------- null}
r -t 0.580785714285714 -s 0 -d 4 -p cbr -e 500 -c 0 -i 15 -a 0 -x {0.0 4.1 3 ------- null}
r -t 0.580785714285714 -s 3 -d 0 -p cbr -e 500 -c 0 -i 18 -a 0 -x {3.0 2.1 3 ------- null}
+ -t 0.580785714285714 -s 0 -d 2 -p cbr -e 500 -c 0 -i 18 -a 0 -x {3.0 2.1 3 ------- null}
- -t 0.580785714285714 -s 0 -d 2 -p cbr -e 500 -c 0 -i 18 -a 0 -x {3.0 2.1 3 ------- null}
h -t 0.580785714285714 -s 0 -d 2 -p cbr -e 500 -c 0 -i 18 -a 0 -x {3.0 2.1 -1 ------- null}
r -t 0.580785714285714 -s 4 -d 0 -p cbr -e 500 -c 0 -i 19 -a 0 -x {4.0 3.1 3 ------- null}
+ -t 0.580785714285714 -s 0 -d 3 -p cbr -e 500 -c 0 -i 19 -a 0 -x {4.0 3.1 3 ------- null}
- -t 0.580785714285714 -s 0 -d 3 -p cbr -e 500 -c 0 -i 19 -a 0 -x {4.0 3.1 3 ------- null}
h -t 0.580785714285714 -s 0 -d 3 -p cbr -e 500 -c 0 -i 19 -a 0 -x {4.0 3.1 -1 ------- null}
r -t 0.581571428571428 -s 0 -d 1 -p cbr -e 500 -c 0 -i 32 -a 0 -x {2.0 1.1 6 ------- null}
r -t 0.585428571428571 -s 1 -d 0 -p cbr -e 500 -c 0 -i 41 -a 0 -x {1.0 0.1 8 ------- null}
r -t 0.585428571428571 -s 2 -d 0 -p cbr -e 500 -c 0 -i 42 -a 0 -x {2.0 1.1 8 ------- null}
+ -t 0.585428571428571 -s 0 -d 1 -p cbr -e 500 -c 0 -i 42 -a 0 -x {2.0 1.1 8 ------- null}
- -t 0.585428571428571 -s 0 -d 1 -p cbr -e 500 -c 0 -i 42 -a 0 -x {2.0 1.1 8 ------- null}
h -t 0.585428571428571 -s 0 -d 1 -p cbr -e 500 -c 0 -i 42 -a 0 -x {2.0 1.1 -1 ------- null}
r -t 0.585857142857143 -s 0 -d 2 -p cbr -e 500 -c 0 -i 13 -a 0 -x {3.0 2.1 2 ------- null}
+ -t 0.589285714285714 -s 0 -d 4 -p cbr -e 500 -c 0 -i 50 -a 0 -x {0.0 4.1 10 ------- null}
- -t 0.589285714285714 -s 0 -d 4 -p cbr -e 500 -c 0 -i 50 -a 0 -x {0.0 4.1 10 ------- null}
h -t 0.589285714285714 -s 0 -d 4 -p cbr -e 500 -c 0 -i 50 -a 0 -x {0.0 4.1 -1 ------- null}
+ -t 0.589285714285714 -s 1 -d 0 -p cbr -e 500 -c 0 -i 51 -a 0 -x {1.0 0.1 10 ------- null}
- -t 0.589285714285714 -s 1 -d 0 -p cbr -e 500 -c 0 -i 51 -a 0 -x {1.0 0.1 10 ------- null}
h -t 0.589285714285714 -s 1 -d 0 -p cbr -e 500 -c 0 -i 51 -a 0 -x {1.0 0.1 -1 ------- null}
+ -t 0.589285714285714 -s 2 -d 0 -p cbr -e 500 -c 0 -i 52 -a 0 -x {2.0 1.1 10 ------- null}
- -t 0.589285714285714 -s 2 -d 0 -p cbr -e 500 -c 0 -i 52 -a 0 -x {2.0 1.1 10 ------- null}
h -t 0.589285714285714 -s 2 -d 0 -p cbr -e 500 -c 0 -i 52 -a 0 -x {2.0 1.1 -1 ------- null}
+ -t 0.589285714285714 -s 3 -d 0 -p cbr -e 500 -c 0 -i 53 -a 0 -x {3.0 2.1 10 ------- null}
- -t 0.589285714285714 -s 3 -d 0 -p cbr -e 500 -c 0 -i 53 -a 0 -x {3.0 2.1 10 ------- null}
h -t 0.589285714285714 -s 3 -d 0 -p cbr -e 500 -c 0 -i 53 -a 0 -x {3.0 2.1 -1 ------- null}
+ -t 0.589285714285714 -s 4 -d 0 -p cbr -e 500 -c 0 -i 54 -a 0 -x {4.0 3.1 10 ------- null}
- -t 0.589285714285714 -s 4 -d 0 -p cbr -e 500 -c 0 -i 54 -a 0 -x {4.0 3.1 10 ------- null}
h -t 0.589285714285714 -s 4 -d 0 -p cbr -e 500 -c 0 -i 54 -a 0 -x {4.0 3.1 -1 ------- null}
r -t 0.589714285714286 -s 0 -d 4 -p cbr -e 500 -c 0 -i 20 -a 0 -x {0.0 4.1 4 ------- null}
r -t 0.589714285714286 -s 3 -d 0 -p cbr -e 500 -c 0 -i 23 -a 0 -x {3.0 2.1 4 ------- null}
+ -t 0.589714285714286 -s 0 -d 2 -p cbr -e 500 -c 0 -i 23 -a 0 -x {3.0 2.1 4 ------- null}
- -t 0.589714285714286 -s 0 -d 2 -p cbr -e 500 -c 0 -i 23 -a 0 -x {3.0 2.1 4 ------- null}
h -t 0.589714285714286 -s 0 -d 2 -p cbr -e 500 -c 0 -i 23 -a 0 -x {3.0 2.1 -1 ------- null}
r -t 0.589714285714286 -s 4 -d 0 -p cbr -e 500 -c 0 -i 24 -a 0 -x {4.0 3.1 4 ------- null}
+ -t 0.589714285714286 -s 0 -d 3 -p cbr -e 500 -c 0 -i 24 -a 0 -x {4.0 3.1 4 ------- null}
- -t 0.589714285714286 -s 0 -d 3 -p cbr -e 500 -c 0 -i 24 -a 0 -x {4.0 3.1 4 ------- null}
h -t 0.589714285714286 -s 0 -d 3 -p cbr -e 500 -c 0 -i 24 -a 0 -x {4.0 3.1 -1 ------- null}
r -t 0.5905 -s 0 -d 1 -p cbr -e 500 -c 0 -i 37 -a 0 -x {2.0 1.1 7 ------- null}
r -t 0.594357142857143 -s 1 -d 0 -p cbr -e 500 -c 0 -i 46 -a 0 -x {1.0 0.1 9 ------- null}
r -t 0.594357142857143 -s 2 -d 0 -p cbr -e 500 -c 0 -i 47 -a 0 -x {2.0 1.1 9 ------- null}
+ -t 0.594357142857143 -s 0 -d 1 -p cbr -e 500 -c 0 -i 47 -a 0 -x {2.0 1.1 9 ------- null}
- -t 0.594357142857143 -s 0 -d 1 -p cbr -e 500 -c 0 -i 47 -a 0 -x {2.0 1.1 9 ------- null}
h -t 0.594357142857143 -s 0 -d 1 -p cbr -e 500 -c 0 -i 47 -a 0 -x {2.0 1.1 -1 ------- null}
r -t 0.594785714285714 -s 0 -d 2 -p cbr -e 500 -c 0 -i 18 -a 0 -x {3.0 2.1 3 ------- null}
+ -t 0.598214285714285 -s 0 -d 4 -p cbr -e 500 -c 0 -i 55 -a 0 -x {0.0 4.1 11 ------- null}
- -t 0.598214285714285 -s 0 -d 4 -p cbr -e 500 -c 0 -i 55 -a 0 -x {0.0 4.1 11 ------- null}
h -t 0.598214285714285 -s 0 -d 4 -p cbr -e 500 -c 0 -i 55 -a 0 -x {0.0 4.1 -1 ------- null}
+ -t 0.598214285714285 -s 1 -d 0 -p cbr -e 500 -c 0 -i 56 -a 0 -x {1.0 0.1 11 ------- null}
- -t 0.598214285714285 -s 1 -d 0 -p cbr -e 500 -c 0 -i 56 -a 0 -x {1.0 0.1 11 ------- null}
h -t 0.598214285714285 -s 1 -d 0 -p cbr -e 500 -c 0 -i 56 -a 0 -x {1.0 0.1 -1 ------- null}
+ -t 0.598214285714285 -s 2 -d 0 -p cbr -e 500 -c 0 -i 57 -a 0 -x {2.0 1.1 11 ------- null}
- -t 0.598214285714285 -s 2 -d 0 -p cbr -e 500 -c 0 -i 57 -a 0 -x {2.0 1.1 11 ------- null}
h -t 0.598214285714285 -s 2 -d 0 -p cbr -e 500 -c 0 -i 57 -a 0 -x {2.0 1.1 -1 ------- null}
+ -t 0.598214285714285 -s 3 -d 0 -p cbr -e 500 -c 0 -i 58 -a 0 -x {3.0 2.1 11 ------- null}
- -t 0.598214285714285 -s 3 -d 0 -p cbr -e 500 -c 0 -i 58 -a 0 -x {3.0 2.1 11 ------- null}
h -t 0.598214285714285 -s 3 -d 0 -p cbr -e 500 -c 0 -i 58 -a 0 -x {3.0 2.1 -1 ------- null}
+ -t 0.598214285714285 -s 4 -d 0 -p cbr -e 500 -c 0 -i 59 -a 0 -x {4.0 3.1 11 ------- null}
- -t 0.598214285714285 -s 4 -d 0 -p cbr -e 500 -c 0 -i 59 -a 0 -x {4.0 3.1 11 ------- null}
h -t 0.598214285714285 -s 4 -d 0 -p cbr -e 500 -c 0 -i 59 -a 0 -x {4.0 3.1 -1 ------- null}
r -t 0.598642857142857 -s 0 -d 4 -p cbr -e 500 -c 0 -i 25 -a 0 -x {0.0 4.1 5 ------- null}
r -t 0.598642857142857 -s 3 -d 0 -p cbr -e 500 -c 0 -i 28 -a 0 -x {3.0 2.1 5 ------- null}
+ -t 0.598642857142857 -s 0 -d 2 -p cbr -e 500 -c 0 -i 28 -a 0 -x {3.0 2.1 5 ------- null}
- -t 0.598642857142857 -s 0 -d 2 -p cbr -e 500 -c 0 -i 28 -a 0 -x {3.0 2.1 5 ------- null}
h -t 0.598642857142857 -s 0 -d 2 -p cbr -e 500 -c 0 -i 28 -a 0 -x {3.0 2.1 -1 ------- null}
r -t 0.598642857142857 -s 4 -d 0 -p cbr -e 500 -c 0 -i 29 -a 0 -x {4.0 3.1 5 ------- null}
+ -t 0.598642857142857 -s 0 -d 3 -p cbr -e 500 -c 0 -i 29 -a 0 -x {4.0 3.1 5 ------- null}
- -t 0.598642857142857 -s 0 -d 3 -p cbr -e 500 -c 0 -i 29 -a 0 -x {4.0 3.1 5 ------- null}
h -t 0.598642857142857 -s 0 -d 3 -p cbr -e 500 -c 0 -i 29 -a 0 -x {4.0 3.1 -1 ------- null}
r -t 0.599428571428571 -s 0 -d 1 -p cbr -e 500 -c 0 -i 42 -a 0 -x {2.0 1.1 8 ------- null}
r -t 0.603285714285714 -s 1 -d 0 -p cbr -e 500 -c 0 -i 51 -a 0 -x {1.0 0.1 10 ------- null}
r -t 0.603285714285714 -s 2 -d 0 -p cbr -e 500 -c 0 -i 52 -a 0 -x {2.0 1.1 10 ------- null}
+ -t 0.603285714285714 -s 0 -d 1 -p cbr -e 500 -c 0 -i 52 -a 0 -x {2.0 1.1 10 ------- null}
- -t 0.603285714285714 -s 0 -d 1 -p cbr -e 500 -c 0 -i 52 -a 0 -x {2.0 1.1 10 ------- null}
h -t 0.603285714285714 -s 0 -d 1 -p cbr -e 500 -c 0 -i 52 -a 0 -x {2.0 1.1 -1 ------- null}
r -t 0.603714285714286 -s 0 -d 2 -p cbr -e 500 -c 0 -i 23 -a 0 -x {3.0 2.1 4 ------- null}
+ -t 0.607142857142857 -s 0 -d 4 -p cbr -e 500 -c 0 -i 60 -a 0 -x {0.0 4.1 12 ------- null}
- -t 0.607142857142857 -s 0 -d 4 -p cbr -e 500 -c 0 -i 60 -a 0 -x {0.0 4.1 12 ------- null}
h -t 0.607142857142857 -s 0 -d 4 -p cbr -e 500 -c 0 -i 60 -a 0 -x {0.0 4.1 -1 ------- null}
+ -t 0.607142857142857 -s 1 -d 0 -p cbr -e 500 -c 0 -i 61 -a 0 -x {1.0 0.1 12 ------- null}
- -t 0.607142857142857 -s 1 -d 0 -p cbr -e 500 -c 0 -i 61 -a 0 -x {1.0 0.1 12 ------- null}
h -t 0.607142857142857 -s 1 -d 0 -p cbr -e 500 -c 0 -i 61 -a 0 -x {1.0 0.1 -1 ------- null}
+ -t 0.607142857142857 -s 2 -d 0 -p cbr -e 500 -c 0 -i 62 -a 0 -x {2.0 1.1 12 ------- null}
- -t 0.607142857142857 -s 2 -d 0 -p cbr -e 500 -c 0 -i 62 -a 0 -x {2.0 1.1 12 ------- null}
h -t 0.607142857142857 -s 2 -d 0 -p cbr -e 500 -c 0 -i 62 -a 0 -x {2.0 1.1 -1 ------- null}
+ -t 0.607142857142857 -s 3 -d 0 -p cbr -e 500 -c 0 -i 63 -a 0 -x {3.0 2.1 12 ------- null}
- -t 0.607142857142857 -s 3 -d 0 -p cbr -e 500 -c 0 -i 63 -a 0 -x {3.0 2.1 12 ------- null}
h -t 0.607142857142857 -s 3 -d 0 -p cbr -e 500 -c 0 -i 63 -a 0 -x {3.0 2.1 -1 ------- null}
+ -t 0.607142857142857 -s 4 -d 0 -p cbr -e 500 -c 0 -i 64 -a 0 -x {4.0 3.1 12 ------- null}
- -t 0.607142857142857 -s 4 -d 0 -p cbr -e 500 -c 0 -i 64 -a 0 -x {4.0 3.1 12 ------- null}
h -t 0.607142857142857 -s 4 -d 0 -p cbr -e 500 -c 0 -i 64 -a 0 -x {4.0 3.1 -1 ------- null}
r -t 0.607571428571428 -s 0 -d 4 -p cbr -e 500 -c 0 -i 30 -a 0 -x {0.0 4.1 6 ------- null}
r -t 0.607571428571428 -s 3 -d 0 -p cbr -e 500 -c 0 -i 33 -a 0 -x {3.0 2.1 6 ------- null}
+ -t 0.607571428571428 -s 0 -d 2 -p cbr -e 500 -c 0 -i 33 -a 0 -x {3.0 2.1 6 ------- null}
- -t 0.607571428571428 -s 0 -d 2 -p cbr -e 500 -c 0 -i 33 -a 0 -x {3.0 2.1 6 ------- null}
h -t 0.607571428571428 -s 0 -d 2 -p cbr -e 500 -c 0 -i 33 -a 0 -x {3.0 2.1 -1 ------- null}
r -t 0.607571428571428 -s 4 -d 0 -p cbr -e 500 -c 0 -i 34 -a 0 -x {4.0 3.1 6 ------- null}
+ -t 0.607571428571428 -s 0 -d 3 -p cbr -e 500 -c 0 -i 34 -a 0 -x {4.0 3.1 6 ------- null}
- -t 0.607571428571428 -s 0 -d 3 -p cbr -e 500 -c 0 -i 34 -a 0 -x {4.0 3.1 6 ------- null}
h -t 0.607571428571428 -s 0 -d 3 -p cbr -e 500 -c 0 -i 34 -a 0 -x {4.0 3.1 -1 ------- null}
r -t 0.608 -s 0 -d 3 -p cbr -e 500 -c 0 -i 4 -a 0 -x {4.0 3.1 0 ------- null}
r -t 0.608357142857143 -s 0 -d 1 -p cbr -e 500 -c 0 -i 47 -a 0 -x {2.0 1.1 9 ------- null}